<?xml version="1.0"?>
<VTKFile type="UnstructuredGrid"  version="0.1"  >
<UnstructuredGrid>
<Piece  NumberOfPoints="3189" NumberOfCells="6184">
<Points>
<DataArray  type="Float64"  NumberOfComponents="3"  format="ascii">1 0 0  0.5000000000000001 0.8660254037844386 0  -0.4999999999999998 0.8660254037844387 0  -1 1.224646799147353e-16 0  -0.5000000000000004 -0.8660254037844384 0  0.4999999999999993 -0.866025403784439 0  1.110223024625157e-16 1.110223024625157e-16 0  0.7499999999999997 -0.4330127018922195 0  -0.7500000000000002 -0.4330127018922191 0  -0.2500000000000002 -0.4330127018922191 0  -0.7499999999999999 0.4330127018922194 0  1.665334536937735e-16 0.8660254037844386 0  0.5 0 0  -0.25 0.4330127018922192 0  0.75 0.4330127018922193 0  0.2499999999999997 -0.4330127018922192 0  -0.5000000000000001 1.665334536937735e-16 0  -5.551115123125783e-16 -0.8660254037844387 0  0.2500000000000001 0.4330127018922194 0  0.8749999999999998 -0.2165063509461098 0  0.6249999999999996 -0.6495190528383292 0  -2.775557561562891e-16 -0.5773502691896257 0  0.2499999999999994 -0.8660254037844388 0  -0.25 0.1443375672974064 0  -0.2500000000000003 -0.1443375672974064 0  -0.5000000000000003 -0.2886751345948126 0  -0.6250000000000003 -0.6495190528383288 0  -0.8750000000000001 -0.2165063509461095 0  3.833594126820256e-17 0.5773502691896257 0  -0.2499999999999998 0.8660254037844386 0  0 0.2886751345948129 0  -0.3750000000000003 -0.6495190528383288 0  0.4999999999999998 -0.2886751345948129 0  0.25 -0.1443375672974063 0  0.2500000000000001 0.1443375672974065 0  0.5000000000000001 0.2886751345948128 0  0.875 0.2165063509461096 0  -1.77422100495019e-16 -0.2886751345948128 0  -0.875 0.2165063509461098 0  -0.6249999999999998 0.649519052838329 0  0.2500000000000001 0.8660254037844386 0  -0.7500000000000001 1.02434697480988e-16 0  -0.5 0.288675134594813 0  0.625 0.649519052838329 0  -0.2500000000000005 -0.8660254037844386 0  0.3749999999999994 -0.6495190528383291 0  0.75 0 0  -0.3749999999999998 0.649519052838329 0  0.4583333333333335 0.5051814855409225 0  0.2083333333333333 0.649519052838329 0  0.4999999999999996 -0.490747728811182 0  -0.1250000000000004 -0.7216878364870321 0  0.6749999999999998 -0.1876388374866284 0  -0.5000000000000003 -0.4907477288111817 0  -0.675 0.1876388374866285 0  -0.4999999999999998 0.4907477288111819 0  0.1249999999999995 -0.7216878364870323 0  -0.1749999999999999 0.6783865662978102 0  0.6875000000000001 0.2525907427704613 0  -0.6250000000000001 -0.1443375672974062 0  0.3750000000000001 0.7297065902257769 0  0.2232142857142851 -0.5928150085429192 0  0.625 0.1030982623552904 0  -0.8125000000000002 -0.3247595264191643 0  -0.1597222222222224 -0.5653221385815084 0  -0.06944444444444456 -0.4330127018922192 0  0.09027777777777758 -0.4450408325003367 0  -0.6562500000000002 -0.3067173305069885 0  0.5916666666666667 0.4185789451624785 0  0.1250000000000001 0.8660254037844386 0  0.06250000000000015 0.7216878364870322 0  -0.08333333333333356 -0.1443375672974063 0  -0.1666666666666669 -0.2886751345948127 0  -0.1666666666666664 2.732722791261288e-16 0  -0.08333333333333302 0.1443375672974065 0  0.08333333333333352 0.1443375672974064 0  0.1666666666666666 -2.418601142382884e-17 0  0.08333333333333326 -0.1443375672974064 0  0.1666666666666664 -0.2886751345948129 0  -0.3916666666666669 -0.3897114317029972 0  0.3229166666666669 0.5593080732774501 0  0.3854166666666667 0.3788861141556918 0  0.1666666666666667 0.288675134594813 0  0.08333333333333348 0.4330127018922194 0  0.3333333333333331 -0.2886751345948129 0  -0.3333333333333333 0.2886751345948128 0  -0.1666666666666666 0.2886751345948128 0  -0.4166666666666668 0.1443375672974065 0  -0.08333333333333334 0.4330127018922194 0  0.6083333333333329 -0.3897114317029975 0  0.5333333333333332 -0.1443375672974065 0  0.4166666666666667 0.1443375672974064 0  0.3333333333333333 1.110223024625157e-16 0  -0.3333333333333335 8.326672684688674e-17 0  -0.3583333333333337 -0.2453738644055908 0  -0.4791666666666668 -0.1443375672974063 0  -0.6416666666666666 0.3319764047840348 0  0.3916666666666666 -0.1587713240271472 0  0.3020833333333333 0.2706329386826372 0  0.5625 0.7577722283113838 0  0.4839181286549709 0.642404669821999 0  -0.3857843137254902 0.4151827671084219 0  -0.5458333333333334 0.1659882023920176 0  -0.6298643410852713 0.06078961264548913 0  0.4166666666666665 -0.3897114317029973 0  0.3599637681159418 -0.5138626580667811 0  -0.1291666666666666 0.5556996340950148 0  -0.2622868217054263 0.575873326640536 0  0.6356182795698924 -0.06308948506064045 0  0.6874999999999996 -0.5412658773652743 0  -0.3724462365591401 -0.5189168346869658 0  -0.8125 0.3247595264191646 0  0.7569444444444445 0.1357460454344656 0  0.9375 0.1082531754730548 0  -0.7625000000000001 -0.137120688932536 0  -0.9375 -0.1082531754730547 0  0.2609126984126978 -0.7234061408596202 0  0.3749999999999993 -0.8660254037844389 0  -0.2625000000000005 -0.7289047148519024 0  -0.3750000000000004 -0.8660254037844385 0  0.8124999999999998 -0.3247595264191646 0  -0.6874999999999998 0.5412658773652742 0  -0.065701219512195 0.7518755106230142 0  -0.6182926829268296 -0.4328366804686857 0  0.5624999999999994 -0.7577722283113841 0  0.9374999999999999 -0.1082531754730549 0  0.4999999999999995 -0.6193393796761442 0  -0.5624999999999998 0.7577722283113839 0  0.6875 0.5412658773652741 0  0.3750000000000001 0.8660254037844386 0  -0.5000000000000003 -0.6193393796761438 0  -0.3749999999999998 0.8660254037844386 0  -0.4375000000000003 -0.7577722283113836 0  0.8125 0.3247595264191645 0  -0.9375 0.1082531754730549 0  0.8124999999999999 -0.1082531754730549 0  -0.1249999999999998 0.8660254037844386 0  -4.698520247946457e-16 -0.7036456405748563 0  -0.2863636363636363 0.7426823917302914 0  0.1249999999999994 -0.8660254037844388 0  -0.4999999999999998 0.6193393796761441 0  -0.1250000000000005 -0.8660254037844386 0  -0.7863636363636364 0.1233430120541474 0  -0.6875000000000002 -0.541265877365274 0  -0.875 1.02434697480988e-16 0  -0.5625000000000004 -0.7577722283113836 0  0.1666666666666668 0.529237746757157 0  -0.3900758558939222 0.5327965603260306 0  0.1721813725490197 0.7598948395951692 0  0.5694444444444445 0.5452752542346466 0  -0.2756861084838949 -0.5861349351814094 0  -0.3645833333333335 -0.1300756410049245 0  0.5309065934065934 0.1746061597068442 0  0.1134948192239855 -0.5578363774027796 0  0.1023882113821139 0.6188619882395912 0  -0.2976190476190478 -0.3354130135292109 0  0.3641390614216695 -0.757772228311384 0  0.875 0 0  -0.4584984459984458 0.721401852962084 0  0.6941096634093373 -0.3059768364728083 0  -0.6120385450597176 0.4481281832883484 0  0.4875 0.4041451884327379 0  -0.5983920840510101 -0.04108532706576205 0  0.2715879777922552 0.7313455926678714 0  0.5836538461538456 -0.5534790561365934 0  0.5839743589743588 -0.2320503966550612 0  -0.4929487179487182 -0.3897114317029972 0  -0.581666666666667 -0.5550435542436627 0  0.7749999999999998 -0.202072594216369 0  -0.07770833333333327 0.6448280819011633 0  -0.4847408061937221 0.3897114317029974 0  -0.7711538461538462 0.2287195297174288 0  -0.5816666666666664 0.555043554243663 0  -0.1874999999999998 0.7821985858540218 0  -0.7427910052910055 -0.2428536846591282 0  0.4009433962264152 0.2807320294762448 0  0.4633195307108344 -0.7726791413176346 0  -0.256347212251735 -0.2442271768644868 0  -0.1974014336917568 -0.6557271202489698 0  0.4558429118773945 -0.08621542812898719 0  0.6770833333333334 0.3572354790610809 0  0.5124999999999997 -0.3838691968361975 0  -0.5988095238095239 0.2460611861546262 0  0.3411458333333335 0.4645865447385271 0  -0.1875000000000005 -0.7938566201357353 0  -0.05208333333333384 -0.7848355221796475 0  -0.07291666666666707 -0.6404979548822409 0  0.05208333333333277 -0.7848355221796476 0  0.1921052246236744 -0.7898683786214995 0  0.5901403902626398 0.2518768563008265 0  0.7800986938440814 0.2285661845869314 0  -0.690277777777778 -0.07457440977032651 0  -0.5520833333333335 -0.2074852529900215 0  0.4698428215787126 0.7364385224908206 0  -0.4166666666666668 -0.04877124360674227 0  0.1907043741237007 -0.5052197331864977 0  0.07254959617767778 -0.6430410938297899 0  -0.5727189083929639 -0.344514359219694 0  0.8482740485752535 0.1289073320479802 0  0.7190721415865029 -0.1052027018856738 0  -0.4166666666666666 0.3277599862139353 0  -0.4244848589280281 0.2360487767556709 0  0.3868687203411829 0.6329197935576969 0  0.08333333333333307 -0.3448064107660266 0  0.1664023452518259 -0.3894089942782489 0  -0.1597222222222223 -0.3889095563291228 0  -0.07956074586697434 -0.3392709734965469 0  0.2980048006714714 0.6455622626305546 0  -0.8445652173913044 -0.08974031358056128 0  -0.3125000000000004 -0.8025928413142626 0  0.5360120854691578 0.08366402080541757 0  0.5879403638585379 0.01172969491155018 0  -0.1725427350427353 -0.4771158474553155 0  0.0006632372571620526 -0.3780301863478833 0  0.4232739338389626 -0.5755068329506551 0  0.07500000000000014 0.5244264945139101 0  -0.008333333333333193 0.4859364765679349 0  -0.3772349359434666 0.7709000441047843 0  -0.2043479512949875 0.5088977167280081 0  0.3252450980392155 -0.3802304346354227 0  0.2499999999999998 -0.327448167378626 0  0.2580882352941174 -0.2358928673380161 0  -0.542892326261846 0.07747834133123983 0  -0.3247462356754912 0.4762951429089538 0  -0.7260976964971704 0.305036600201641 0  0.7187499999999996 -0.4871392896287469 0  0.627218293107243 -0.4763007506950925 0  0.3333333333333335 0.1838585678669345 0  0.3258928571428573 0.0919292839334673 0  0.2425595238095239 0.05240828336393925 0  0.1666666666666669 0.1048165667278786 0  0.174107142857143 0.1967458506613458 0  0.2425595238095238 0.3410834179587522 0  0.1666666666666668 0.3934917013226915 0  0.3125000000000001 0.8660254037844386 0  0.2751024808801829 -0.5140765611607219 0  0.3713445614169117 -0.07613612843135285 0  0.4679718875502007 -0.2052607734137013 0  -0.2589975334742776 0.6614902214748559 0  -0.7023661028893587 0.1064466672311931 0  0.3095410092573233 -0.5932375966618527 0  -0.5684708872858761 0
[...]
<PointData  Scalars="f_17"> 
<DataArray  type="Float64"  Name="f_17"  format="ascii">0.0000000000000000e+00  0.0000000000000000e+00  0.0000000000000000e+00  0.0000000000000000e+00  0.0000000000000000e+00  0.0000000000000000e+00  -1.6702673532156043e+00  0.0000000000000000e+00  0.0000000000000000e+00  1.9861724163037514e-01  0.0000000000000000e+00  0.0000000000000000e+00  -1.0056156704334662e+00  -1.2312277290922762e+00  0.0000000000000000e+00  9.0020333093521832e-01  1.5442268108696540e+00  0.0000000000000000e+00  -5.3452217670893454e-01  0.0000000000000000e+00  0.0000000000000000e+00  2.1247819749285988e+00  0.0000000000000000e+00  -1.0907186613892652e+00  -2.5426151047532413e+00  1.0106290949331673e+00  0.0000000000000000e+00  0.0000000000000000e+00  -7.9484984438483641e-01  0.0000000000000000e+00  -1.3892754876560345e+00  2.1041614741520704e+00  -1.0146718778692310e+00  -2.0991778770899741e+00  -6.4661108095914921e-01  -6.7060502003573541e-01  0.0000000000000000e+00  -1.2756926639029333e+00  0.0000000000000000e+00  0.0000000000000000e+00  0.0000000000000000e+00  2.1718493313623330e+00  1.3558290018811134e+00  0.0000000000000000e+00  0.0000000000000000e+00  2.1371819877274358e+00  -4.5742582194309694e-01  -1.1130721313892503e-01  -2.6120889838543471e-01  -1.9045353478324609e-01  9.9385573880544897e-01  1.2071750871577833e+00  -1.4100061371603887e+00  2.2631276926301962e+00  2.5052399265497982e+00  9.3070616790336769e-01  2.4596305402895928e+00  -1.3739420006156633e+00  -3.8870270199200913e-01  1.3250707247353093e+00  -7.5402386470828642e-02  2.3809111743384572e+00  8.6366088282660135e-03  0.0000000000000000e+00  1.1114916213366368e+00  1.6192683141444064e-01  1.5292111612365999e+00  1.3497948399180868e+00  -1.1780269766484325e-02  0.0000000000000000e+00  -8.2174126452497262e-02  -3.0043278488383449e+00  -2.0729027220610523e+00  -2.3485813045447816e+00  -1.6013098161113728e+00  -3.8411413488200596e-01  -1.0343614873152416e+00  -1.7870497895044128e+00  -6.6649798728293541e-01  9.9471569397610338e-01  -5.0710685668935862e-01  -2.8608929432492275e-01  -7.1876871956655652e-01  -2.6883150117612942e-01  -1.0189670419331216e+00  -6.0914304961892385e-01  -2.1292089748987233e+00  1.1280728375284033e+00  -1.5480752521387087e+00  3.7310848393669431e-02  -1.8384445202567596e+00  -1.8089253403574582e-01  -1.2447470659652171e+00  -6.9351799906565614e-01  -8.0985553319926495e-01  3.5220790764239968e-01  1.6633722756830043e+00  -1.7509888664731279e+00  -1.0338262398705049e+00  0.0000000000000000e+00  -8.1054538770642295e-02  2.7894145699599826e-01  2.4164737363493791e+00  2.8410467828709014e+00  4.3257681746952287e-01  1.7102465875924449e+00  -1.7286356421407414e+00  -1.1730921695097667e+00  -1.1682879540960167e+00  0.0000000000000000e+00  1.9078180748623983e+00  0.0000000000000000e+00  1.6904709412915361e-01  0.0000000000000000e+00  1.0852057479225432e+00  0.0000000000000000e+00  1.8371952239493823e+00  0.0000000000000000e+00  1.2933000820740559e+00  0.0000000000000000e+00  0.0000000000000000e+00  0.0000000000000000e+00  -7.4012158014172291e-01  1.7092143150236478e+00  0.0000000000000000e+00  0.0000000000000000e+00  1.3493561976330133e+00  0.0000000000000000e+00  0.0000000000000000e+00  0.0000000000000000e+00  2.1208951680081185e+00  0.0000000000000000e+00  1.3928906371464178e+00  0.0000000000000000e+00  0.0000000000000000e+00  -8.1590760152866115e-01  0.0000000000000000e+00  2.0651557120738904e+00  -6.3517830780610263e-01  0.0000000000000000e+00  6.5877460549957245e-01  0.0000000000000000e+00  2.1719788539177478e+00  0.0000000000000000e+00  1.0797068190397112e+00  0.0000000000000000e+00  -3.2500495927290984e-01  -5.3581156773772939e-02  8.3215973125184015e-02  -2.3426415276903029e-01  1.5778106168069039e+00  -1.0927089018651719e+00  -3.5799803972346833e-01  2.6719814075197403e+00  2.5041163507565828e-02  -5.9020099107778701e-01  1.4991197514399162e+00  -1.8950186393845847e-01  2.0686695645788444e-01  -7.0527888131217975e-01  1.3463481974616409e+00  -2.1222474867662378e-01  1.9203243930307179e+00  -3.6165571829373300e-01  8.2090316511519701e-01  -1.3703217061696296e+00  1.7178009700465926e+00  1.7158475876159593e+00  -8.5039869750012131e-01  -1.1841016022150761e+00  1.2779817377714635e+00  1.3882593547619275e+00  7.1854793667819283e-01  -7.3005544397548983e-01  8.7735071414972110e-01  -6.0587066549499757e-01  9.6516130839697467e-01  -1.9961709580819322e+00  1.3589462005710677e+00  -1.5895688845458398e+00  -1.9358011145295848e-01  -2.4743958300539402e-02  2.0736827112101399e+00  -4.3086813573169369e-01  6.4899474130335288e-01  1.0238236893681285e+00  1.6769098391126362e+00  1.5550299550158835e+00  1.3991404151712206e+00  -4.4577973170952467e-01  -5.8689832533969019e-02  1.7588682133550686e+00  9.7920512362203194e-01  -3.8218212455400719e-02  7.7007023294298968e-02  2.0297572947507323e+00  2.7578970369472930e+00  1.6334385609902646e+00  1.3073184981107233e-01  -1.2721857743847036e+00  4.9390699842731622e-01  7.5718414202436635e-01  -2.1130435601601497e-02  9.8781886631505472e-02  7.3664207636392531e-01  -7.4037510504115489e-01  -1.2199576495864111e+00  -3.8024898933978540e-01  8.0733984361086020e-01  8.1340381494985425e-01  -3.6688336818456774e-01  -6.7510445396783980e-01  3.7617433033857006e-01  -1.6719682816873270e-02  1.9729860744097156e+00  -4.1218240438353770e-01  -1.0459462549824869e+00  -2.3787919141549124e-02  -1.7046492619451394e+00  1.4732542563769674e-01  -5.3645190547603849e-01  -1.6440017929425395e+00  2.4993286484817552e+00  -5.9774954410917502e-01  1.1949627054241478e+00  0.0000000000000000e+00  5.0160214583017038e-01  -6.3283265635378350e-01  -6.3005206588060414e-01  -9.0705242062971947e-01  -3.5950573705094457e-01  -5.2200445009827245e-01  -8.2283066942022742e-01  -2.8620261469417990e-01  0.0000000000000000e+00  1.6825847650732102e+00  -1.6549329044950860e+00  -1.6014252223538361e+00  -1.0265515233691203e+00  2.8438712364973804e+00  2.0740476353953343e+00  1.6978851323961086e+00  -3.0639642315146370e-01  -2.1562623885705263e+00  -1.3616331653248868e+00  -3.0217413137157658e+00  -2.9539300290227302e+00  -1.8423286731049326e+00  -1.7079567385545202e+00  -1.5922676126522317e+00  -1.6966731783398574e+00  -1.4617929482720915e+00  -7.2244193701154669e-01  -1.1396826569788094e+00  -1.9587016752082811e+00  -1.8712613095448583e+00  -1.7782054985793780e+00  -9.9329157781656174e-01  -6.1184629556252934e-01  -2.3241868100382712e+00  -2.2139975893226667e+00  -2.4648289626194275e+00  -2.6677181101879959e+00  -1.8891213455759219e+00  -1.0281208977375396e+00  -6.8301406358508565e-01  -5.6429646815439202e-02  -2.3786154983345775e-01  -1.4942477815023663e+00  -9.5409198690968444e-01  -1.4744550113083601e+00  8.9959766739496216e-01  -1.6899309365357347e+00  -4.4831132974622923e-01  -6.1105607735152700e-01  -1.2257963864527150e+00  -3.7261616871439035e-01  1.2258747484554184e+00  1.6139267958270549e+00  -5.6665848520236839e-01  2.3545550666791439e+00  8.3168622385535892e-02  2.5186935933580981e+00  -8.2986592913396925e-02  1.4532532822530800e-01  1.4420525446459709e+00  1.1364851647609748e+00  -5.5421990292782086e-01  -7.0882652500082866e-01  -4.8295673211985291e-01  2.3897864372289777e-02  -2.9105188253401543e-01  1.1519437054321682e+00  1.0246606992403600e+00  7.1955572636773268e-02  1.8109674634377227e-02  0.0000000000000000e+00  0.0000000000000000e+00  1.9905253815074025e-01  1.1825423974570990e+00  -1.4592482593379849e-01  -6.2082593079823967e-01  0.0000000000000000e+00  9.7119431049339577e-01  -1.7721783060723220e+00  -8.0699788972634870e-02  0.0000000000000000e+00  1.4196813373951551e+00  0.0000000000000000e+00  1.5268626199503970e+00  0.0000000000000000e+00  1.0516548540473489e+00  1.7623436183329846e+00  0.0000000000000000e+00  -5.0269796288488086e-02  1.0227572121760360e+00  -1.4669461217782536e+00  2.4194601249627792e+00  -1.8520353659762617e-01  9.2617214695831251e-01  1.8574570069370255e+00  1.1273788588624354e+00  4.5211106710366977e-01  -1.7771710786642367e+00  -1.5519254224215391e+00  1.6418886453150688e-02  -1.1506160067236411e+00  -7.7486801232876990e-01  -8.9390117231357658e-01  -5.3064939319096179e-02  -8.0137357339690518e-02  1.9865089904940814e-01  -6.8491894199817815e-01  -8.8875459336571122e-02  -3.0035999642895583e-01  -4.0673999231650843e-01  7.7454329966908397e-01  8.6163603645315445e-01  -2.8537097135089173e-01  1.3003486715480868e+00  1.6024588818573449e+00  2.0287667522866037e+00  -1.7530542607638093e+00  -2.0594398287632956e+00  1.5578215225002312e+00  -8.9467294957028459e-02  -1.8304092072158666e+00  1.8526085348678194e+00  1.6581335341007735e+00  1.5101509613655606e+00  5.1951565889747997e-01  -2.1007329749816084e-01  2.7893115624001528e+00  -1.4677990597993429e+00  2.1844420664346726e+00  0.0000000000000000e+00  0.0000000000000000e+00  1.0444861250789546e+00  5.8170033720998027e-01  1.1373631066871794e+00  1.5606857876088462e+00  1.3245592314007013e+00  8.1909502931218192e-01  2.9081185013859417e-01  -1.1062367217289187e-01  -1.1753344543540795e-01  1.9105316737412275e+00  1.9816688369206017e+00  0.0000000000000000e+00  2.1420284652349713e+00  -1.3414398571628774e+00  -3.1939225705502394e-01  7.3180624460959787e-01  -7.2525007150577525e-01  1.4787992702939199e+00  2.8734041700383335e+00  -1.5748428681211541e+00  -5.6561414975691371e-01  1.4488795988522341e+00  -5.9898986410267274e-01  0.0000000000000000e+00  -3.2040416097497010e-01  9.9411909315220082e-01  0.0000000000000000e+00  -2.1671036672978993e-02  -9.1561303363389035e-01  1.7102602846230559e+00  1.9315455785267097e+00  0.0000000000000000e+00  0.0000000000000000e+00  -1.1010100344638472e+00  2.0258114102416962e+00  0.0000000000000000e+00  0.0000000000000000e+00  -5.7822123131073222e-01  5.3588756496138930e-02  -1.4528348452412685e+00  7.1548928196745920e-01  2.2397973673420539e+00  2.2025387680825217e+00  -5.9210748471866181e-01  -2.5426268954462194e-01  0.0000000000000000e+00  1.3336648279643171e+00  -3.1159891627022668e-01  2.2692637709432248e+00  7.9400795436650562e-01  2.2635200169499541e+00  1.8858501389142290e+00  1.4209949770315298e+00  -1.0887161544840911e+00  5.0948452670246847e-01  1.3174488042993358e+00  -5.9629401369105595e-01  1.3136784555766436e+00  2.4001420162965830e+00  3.6751026391665365e-01  -3.3762464097749029e-01  0.0000000000000000e+00  0.0000000000000000e+00  9.1787461248099289e-01  1.5081317258781648e+00  -1.3903513958807220e-01  -2.3937558284729690e-01  -4.2632045051308676e-01  -1.8968835646736542e+00  -1.4516581813311116e+00  -9.8981838861101012e-01  2.4733697835439576e+00  2.3432604134743009e+00  1.5074627366836579e+00  0.0000000000000000e+00  1.3835146267382630e+00  7.7729222991083180e-01  0.0000000000000000e+00  0.0000000000000000e+00  -4.5494338291055292e-01  -5.3501856541321102e-01  0.0000000000000000e+00  0.0000000000000000e+00  0.0000000000000000e+00  0.0000000000000000e+00  0.0000000000000000e+00  0.0000000000000000e+00  0.0000000000000000e+00  0.0000000000000000e+00  0.0000000000000000e+00  -3.5953030158886443e-02  0.0000000000000000e+00  0.0000000000000000e+00  0.0000000000000000e+00  0.0000000000000000e+00  -6.7162237287913518e-01  0.0000000000000000e+00  5.3688892088869244e-01  0.0000000000000000e+00  0.0000000000000000e+00  0.0000000000000000e+00  0.0000000000000000e+00  0.0000000000000000e+00  0.0000000000000000e+00  0.0000000000000000e+00  0.0000000000000000e+00  0.0000000000000000e+00  0.0000000000000000e+00  -1.2551426667807757e+00  1.7835710682375054e+00  -3.1412787377234491e-01  -8.9958567030596870e-01  -5.4589961865944536e-01  -3.6585393656699988e-01  -1.7292476639367291e+00  -5.3225957661644485e-01  1.1586701944174558e+00  -3.8150664724107264e-01  -6.9929955548256290e-02  -1.0123466869403981e+00  -1.1058693091567067e+00  1.3260520966992567e-01  7.5022298802984499e-01  -4.1863788314037237e-01  1.0796380532581142e+00  7.1567257159645015e-01  1.5313294869256600e+00  9.5759535407200302e-01  1.7124030397458170e-01  -1.7346524918246551e+00  1.0128644043939783e-02  -1.6916851583659853e+00  -1.9030355114162684e-01  -2.8483579016874977e-01  1.3626982968920607e+00  1.5653588769820481e+00  2.3059979945389668e+00  -8.6294944581631894e-02  -5.9509120323136588e-01  1.9481662402842139e+00  1.2220217838527978e+00  2.0681956550812517e+00  -1.1011428344398144e-01  6.0091703301082079e-02  6.7903132584056003e-01  2.1700060540736619e+00  2.6709491047516134e+00  3.5728133480622781e-01  1.4707399009637587e+00  -8.4787163593263504e-01  -1.4851567374299099e-01  1.2255790016937540e-01  -2.8872959436273193e-01  1.3813774897904900e+00  2.0526768781643794e+00  -1.1721084595604249e-01  3.3356981388824668e-02  -3.8200809765831850e-01  1.0728593442526788e+00  -5.6316802374865371e-01  -3.5902278623113032e-01  -1.0371029784864083e+00  -3.1538965964848548e-01  9.6936559886211970e-01  6.3378670787504188e-01  7.8052733602847668e-01  4.0231325877599888e-01  -7.6544623398158784e-01  7.9578285833880991e-01  -1.1422132812069816e+00  2.5165438909641562e+00  2.7892714141275157e+00  5.2112593284946322e-02  4.5292728180579489e-01  9.8066459171351383e-01  -1.0543014018455696e+00  2.1282771059132699e+00  1.0446600130985910e+00  2.5129347319674693e+00  5.3234045213509129e-01  1.6067562527986059e+00  -1.6068721629433957e+00  1.8940859922109352e+00  -3.1197376649468089e-01  -1.9137080783713981e-01  2.6692810103357383e+00  1.4848707617720316e+00  -4.0543633044953821e-02  -1.6187631579849940e-01  3.8911475559286396e-01  2.3283565391047426e-01  -1.1743174209528726e+00  9.5068349266571250e-01  1.7835886757973263e-01  1.1981768071536698e+00  5.2242817602252523e-01  8.1176632513766100e-01  2.0582334268576772e+00  -8.2654848733741315e-01  -3.6557728972926651e-01  -5.3801614968126543e-01  1.1745335682883038e+00  -9.9816665659022397e-01  2.5037725809772836e-02  4.6517815810562596e-01  1.1031003376635022e+00  2.1017032629769794e+00  -1.3276722483415049e+00  -5.6684485697237996e-01  -1.3183806500314528e+00  -1.9533302599541655e-01  2.4429202478781473e+00  1.5226603550971738e+00  1.2190533065623062e-01  -6.5973318588798180e-01  -8.3561368223841012e-02  1.8512113714851846e+00  2.5710921538893503e+00  1.6075703886566306e+00  -6.7231722345485101e-01  -1.1533753212861506e+00  1.0298227016032495e-01  -1.3556674303115601e+00  -1.8506430228225332e+00  1.3554942684103552e-01  1.0656467775968572e+00  8.4395000217144422e-01  -2.0688395720608019e+00  -3.9856862957857148e-02  5.7594060614807230e-01  -1.8839491892995996e-01  1.4274718720648763e-02  -8.0103544897796275e-01  -4.4204216697060839e-01  -7.9983304261551114e-01  -5.5717109909194795e-01  -3.2825800522480514e-01  -4.8498513757512540e-01  -2.6591030635663948e-01  -4.3407518763661890e-01  -6.1875832876974923e-01  -3.2678044008078966e-01  -1.3095618013738721e+00  -1.9222969878616933e+00  -1.5245590909782678e+00  1.4526302219764748e+00  7.0626659818260296e-01  1.0654728126868919e-01  1.6147435125375487e-01  9.3532794758272597e-01  -1.5234435974100535e-01  1.4495575264444942e+00  -1.8376022573788671e+00  -2.4984925198412693e+00  -2.6606370908396402e+00  -2.6156430616448194e+00  9.0263837512927481e-01  5.2578337992084123e-01  -4.0874866900180984e-01  6.6352407061466967e-01  -7.6157335598686915e-01  -4.6908860272205721e-01  1.8938074814597519e-01  8.7056692877218411e-01  9.7115154536854065e-01  1.6782872230650037e+00  -1.0580399070729898e-01  1.8602613523421894e+00  1.0077528004614602e+00  4.6820881748167864e-01  1.3222902336828493e+00  8.8065326052727222e-01  -2.5390756785921914e-01  -3.7109790337276899e-01  -3.2987275530285101e-03  5.0460355233324372e-01  -1.9792743017383205e-01  -4.4408874522111247e-01  -3.5868849543730963e-01  -1.7542087362493530e-01  1.0883233261988814e+00  8.1636338333186764e-01  -4.2908592900537237e-02  -1.8399968271655125e+00  -1.4095732837192090e-01  -1.2753388577511771e+00  2.0669331990021171e+00  1.3352377480391702e+00  -1.1977434442896620e+00  1.4487632520496017e+00  8.5091311007479509e-01  1.8323971632204475e-01  6.7709520589863381e-01  8.9112579735902653e-01  -6.6770354894992612e-01  -2.8055221465484137e-01  -7.6216335514164313e-01  -1.2392551059117454e+00  -1.4700110178264385e+00  -1.4883521424385036e+00  -2.0684442914639338e+00  -2.6301380306328710e+00  -2.6689907944807811e+00  7.8592352520748598e-01  -4.6631839345856374e-01  -1.2610030808333126e+00  -2.0099006575487834e+00  -1.4587900034771657e+00  -1.7176556602601116e+00  -8.9635521265321971e-01  6.4675777519540886e-02  -1.4102896029821690e-01  -2.1409798689602275e-01  1.5942577949321823e+00  -1.7484628337643754e-01  -9.0868741424010924e-01  6.1351234496211293e-01  4.4227154123029638e-01  -1.8804287121725149e-01  -1.5961351851342351e+00  -2.4894267073935916e-01  -1.3442670995896546e+00  2.7381366170063575e-02  -4.8045060804985834e-01  9.3879212515267907e-01  1.7727372047717598e+00  -4.6124120381150063e-01  1.4235086787037565e+00  4.7023365182109117e-01  -1.7347307728009931e+00  8.2126639871071194e-01  -4.8282254766319094e-01  -5.7550402664283518e-01  -1.9563825295758769e-01  -1.6564092416549436e-01  8.0914402305247324e-02  -1.4789668403013705e+00  -2.9839535544066081e-01  -2.6631071840648124e-01  -8.5675930665880962e-01  -1.2841497845169276e+00  -8.2874366702234192e-01  2.0467526720764533e+00  1.3589624771917050e+00  1.3068280746972196e+00  2.0285065276237737e+00  -1.0516969444140287e-01  3.4005526149050641e-02  -1.1713365388433504e-01  1.7180365791551950e+00  1.0958651862621782e+00  -6.4477499249558701e-01  -3.5094724596321680e-01  -1.0527854508513365e-02  1.5751133090822393e+00  -2.1487455915896750e-02  6.8089609659287054e-01  2.0311524870682338e+00  1.6502797867739252e+00  -3.9967784445185744e-01  -1.2323876436002479e+00  -1.3723032682291545e+00  -1.6790141439262747e+00  1.9155709094714368e+00  -3.0065389045629348e-01  -5.2813040194324012e-01  -5.7497717579878338e-01  2.0622615953632590e+00  1.8580737050723846e+00  9.9359858307590621e-01  -3.4318875218482303e-01  -2.6239857364375052e-01  1.9500813124346699e+00  8.2446954334506017e-01  -1.4224463819515558e+00  -3.0396413615500233e+00  -2.7946028018911941e+00  -2.3758881232124427e+00  -2.1147433886861249e+00  -2.2942619936284325e+00  -1.8242176156519636e+00  -1.8816495933515300e+00  -2.1492046118082935e+00  -1.7692978193431135e+00  -2.6228960141328179e+00  -2.7719451788658214e+00  -1.5896015778299231e+00  -2.9514392200658581e+00  -3.1439910631385319e+00  -6.8513629807244014e-01  -7.9646412094561225e-01  -1.3774820847501361e+00  -1.5509201948047426e+00  -1.5235290058310065e+00  -1.9349344059837676e+00  -2.0979550765218171e+00  -1.8602286735064191e+00  -1.7290250596741021e+00  -1.7356669810210168e+00  -2.0122615703976248e+00  -1.8283734286114530e+00  3.6461167857840926e-01  -7.5228607689334914e-01  -1.2259094792644878e+00  -6.9062923245007668e-01  -1.1405340943957398e+00  -1.5315709288613517e+00  -1.6962299669231515e+00  -1.8727443152041725e+00  -2.0612728055090010e+00  -5.1192246405950748e-01  -1.8175597134726329e+00  -2.0273838443333490e+00  -1.8854166440993729e+00  -2.1306522796352323e+00  -1.5118868282825715e+00  -9.3325102544824234e-01  -6.8124175174384594e-01  -1.0948584180223171e+00  -1.4625997143980576e+00  -1.4757385645901606e+00  -9.8858929454031186e-01  -1.6419541921752903e+00  -1.5911353497399201e+00  -1.5747217692535391e+00  -4.2452132817861477e-01  -1.8493745451133030e+00  -5.6343889926486435e-01  -1.7560290516268779e+00  -2.6699765973200029e+00  -9.8556660936615637e-01  -1.3672194083077576e+00  -1.2274329542986055e+00  -1.4738264876667457e+00  -1.5175723814116031e+00  -9.5832466570251085e-01  -1.0473824429615879e+00  -2.9831261122713553e+00  1.4970946193497900e+00  1.8262699720440423e+00  2.3268138113328241e+00  -5.9441298119811059e-01  -1.8066766697529860e-01  -9.5891631796503540e-01  4.9636610371382484e-01  2.0214498648122885e+00  -4.1157821941220647e-02  1.5684048517262019e+00  1.4408155384848609e+00  1.9792471535049019e+00  -1.5286657272899187e-01  9.2601304926560368e-01  3.7072256075303794e-01  3.2525385417991759e-01  5.8815837337005750e-01  3.2408571133184366e-01  